ITEM: TIMESTEP
0
ITEM: NUMBER OF ATOMS
165
ITEM: BOX BOUNDS xy xz yz pp pp pp
0.0000000000000000e+00 3.4359797999999998e+01 8.5899494999999995e+00
0.0000000000000000e+00 1.9837638624699999e+01 8.5899494999999995e+00
0.0000000000000000e+00 1.4027328794200001e+01 4.9594096562000001e+00
ITEM: ATOMS id type x y z
1 1 11.8462 8.38552 12.7213
2 1 18.9602 2.72021 3.86677
3 1 13.6785 13.5909 0.967802
4 1 11.6526 4.99472 10.2256
5 1 18.3761 15.3322 12.7697
6 1 15.7166 4.29398 1.5232
7 1 24.0938 7.84972 10.3977
8 1 15.7652 17.2166 9.82808
9 1 20.4554 10.0341 11.1234
10 1 18.8954 14.3561 8.59205
11 1 22.1858 10.8341 5.61118
12 1 20.3666 6.56075 8.27784
13 1 18.6084 7.20682 2.96672
14 1 15.4328 12.7366 10.8165
15 1 15.5097 7.37261 10.8062
16 1 15.9283 5.2199 5.89563
17 1 22.2384 11.2904 1.1239
18 1 21 5.71173 12.6428
19 1 22.6959 14.8378 3.95515
20 1 10.2404 12.3257 3.41114
21 1 13.8857 9.71031 3.00781
22 1 12.3024 9.06175 8.24122
23 1 14.0724 13.4638 5.52515
24 1 18.888 12.7662 3.42711
25 2 19.2767 6.19273 1.69478
26 2 12.9712 14.6024 4.79098
27 2 14.672 6.18721 11.7002
28 2 19.4664 15.6934 9.5291
29 2 12.6861 9.76907 1.75991
30 2 21.4242 9.73066 12.5335
31 2 10.9519 8.31911 9.00688
32 2 21.5886 5.5531 9.03157
33 2 18.5851 13.8866 11.8311
34 2 21.3439 14.7788 5.10466
35 2 23.2415 8.41083 8.97424
36 2 19.5924 3.90861 5.03233
37 2 21.4824 9.8624 1.89694
38 2 12.6924 9.52601 11.7636
39 2 19.4427 6.16081 11.9137
40 2 12.9737 5.47603 9.09315
41 2 15.2273 14.1059 11.8697
42 2 19.3387 13.9643 2.22008
43 2 15.5374 3.81653 4.97361
44 2 23.6891 11.0174 4.76518
45 2 15.0304 5.62495 2.46786
46 2 10.9218 11.4153 4.80168
47 2 15.1273 15.9504 8.80232
48 2 15.221 13.335 1.79447
49 2 28.0609 9.2289 13.8869
50 2 3.0443 1.5831 3.55067
51 2 22.659 19.6461 13.734
52 2 20.012 18.1906 9.91533
53 2 19.8264 15.2464 13.7131
54 2 14.4623 4.02364 0.383325
55 2 25.7666 8.0228 10.0668
56 2 6.17805 3.72834 9.53679
57 2 19.3869 11.3183 11.5999
58 2 20.0434 14.0809 7.32044
59 2 22.366 10.2447 7.23611
60 2 20.1 5.8977 6.70764
61 2 19.3963 8.72986 3.12428
62 2 14.2477 11.5566 11.194
63 2 17.1934 7.33472 11.1939
64 2 14.6532 5.43885 7.07123
65 2 31.3353 15.7593 13.5809
66 2 11.9138 0.17232 0.145814
67 2 23.3503 16.3867 4.30636
68 2 8.60613 11.8511 3.4662
69 2 14.3958 8.05803 3.12849
70 2 11.7937 9.93791 6.84055
71 2 15.0059 14.2521 6.75082
72 2 17.3461 12.2371 2.89511
73 2 18.8544 3.72114 2.4151
74 2 12.7571 14.4667 2.181
75 2 12.8792 7.19075 13.4375
76 2 18.6853 16.7642 11.7637
77 2 13.0353 12.0881 0.396146
78 2 12.3327 5.10373 11.8017
79 2 17.1323 4.90855 0.681462
80 2 23.8353 8.70766 11.8934
81 2 10.6083 7.71404 11.6688
82 2 17.444 17.5352 9.54534
83 2 23.7085 6.15026 10.4694
84 2 10.2646 5.93776 9.72739
85 2 19.167 12.8658 9.49496
86 2 21.1571 12.2133 5.88691
87 2 21.319 10.2107 9.61794
88 2 18.989 6.40208 4.47376
89 2 21.3803 9.6123 4.57396
90 2 20.868 8.1885 7.8843
91 2 17.0044 11.9754 10.8449
92 2 15.2115 9.10836 10.9156
93 2 19.3475 8.66402 11.0563
94 2 17.5762 5.14397 6.42853
95 2 15.2399 7.02775 9.09991
96 2 18.993 6.52439 9.36115
97 2 15.473 16.7117 11.5015
98 2 21.7024 4.59789 11.4875
99 2 21.0887 12.5847 0.889445
100 2 15.9019 2.9461 2.53573
101 2 21.8434 7.19834 12.8811
102 2 21.804 14.8131 2.4289
103 2 16.8207 15.6042 13.4862
104 2 10.888 11.6159 1.96861
105 2 23.5143 11.6591 2.23127
106 2 17.4929 2.00885 4.4594
107 2 10.6193 13.9836 3.76292
108 2 23.8522 13.5906 4.10102
109 2 15.6855 6.65735 4.88269
110 2 13.1881 7.61953 7.53874
111 2 13.0069 9.84049 4.54732
112 2 15.0657 13.3885 9.23405
113 2 13.4361 9.93379 9.2197
114 2 13.1146 12.1205 6.07943
115 2 16.9187 7.45347 2.59579
116 2 19.8331 11.3488 3.25249
117 2 15.1347 10.864 2.89004
118 2 17.2513 14.4406 8.01143
119 2 19.0219 13.5879 4.96036
120 2 15.3752 13.105 4.38995
121 3 18.7104 4.74084 1.17765
122 3 11.9479 14.8903 3.51188
123 3 13.4401 5.85777 12.7384
124 3 18.8673 17.0763 10.157
125 3 11.9817 10.9987 0.932902
126 3 22.5757 8.64444 12.9207
127 3 10.1106 7.52309 10.1492
128 3 22.6207 4.98876 10.1968
129 3 18.5291 12.5361 10.9586
130 3 20.4469 13.659 5.8288
131 3 21.9677 9.2619 8.44928
132 3 18.9964 5.27316 5.6846
133 3 20.5013 9.88898 3.19854
134 3 13.8439 10.0546 10.8168
135 3 18.7462 7.16553 10.8338
136 3 14.0402 6.3614 8.23226
137 3 15.4275 15.5136 12.6374
138 3 20.7752 14.0948 1.406
139 3 16.0113 2.5091 4.10494
140 3 24.2143 12.1049 3.63883
141 3 15.541 6.935 3.29634
142 3 12.2338 10.8454 5.58536
143 3 15.6293 14.5194 8.22201
144 3 15.7361 12.3448 2.96535
145 4 17.0456 13.4962 5.93743
146 4 13.0749 12.1813 8.35759
147 4 20.9251 12.0366 8.2665
148 4 17.7964 9.59281 2.71206
149 4 17.2744 9.84232 11.4875
150 4 13.8848 7.93815 5.44966
151 4 26.0201 8.79622 12.6106
152 4 20.077 8.10142 5.67603
153 4 16.8149 5.81808 8.20719
154 4 13.2984 1.55905 2.045
155 4 8.12658 4.78988 9.53106
156 4 21.4861 17.7262 12.4294
157 5 9.48973 6.2668 4.22411
158 6 9.39539 4.92524 4.45223
159 7 8.76681 3.9431 3.52609
160 8 9.36966 3.02578 3.44354
161 8 8.58734 4.37039 2.53026
162 8 7.80242 3.63208 3.96529
163 9 9.76527 4.52868 5.40623
164 10 9.06719 6.71446 3.31926
165 10 9.82891 6.95534 5.00341
ITEM: TIMESTEP
2
ITEM: NUMBER OF ATOMS
165
ITEM: BOX BOUNDS xy xz yz pp pp pp
0.0000000000000000e+00 3.4359797999999998e+01 8.5899494999999995e+00
0.0000000000000000e+00 1.9837638624699999e+01 8.5899494999999995e+00
0.0000000000000000e+00 1.4027328794200001e+01 4.9594096562000001e+00
ITEM: ATOMS id type x y z
1 1 11.8478 8.38177 12.7225
2 1 18.9596 2.72195 3.86585
3 1 13.6807 13.5904 0.96794
4 1 11.6488 4.99261 10.2225
5 1 18.3797 15.3344 12.7675
6 1 15.7187 4.29402 1.52558
7 1 24.0893 7.84722 10.3964
8 1 15.7665 17.2195 9.8288
9 1 20.453 10.0303 11.1189
10 1 18.8922 14.3525 8.59549
11 1 22.1884 10.8349 5.61074
12 1 20.3632 6.55983 8.28303
13 1 18.6082 7.20249 2.96989
14 1 15.4292 12.7318 10.8192
15 1 15.5107 7.37622 10.8088
16 1 15.9277 5.21742 5.8943
17 1 22.2355 11.2877 1.12138
18 1 20.9973 5.71396 12.645
19 1 22.7 14.8351 3.95655
20 1 10.237 12.3266 3.41272
21 1 13.888 9.70598 3.00903
22 1 12.3016 9.06498 8.2448
23 1 14.0731 13.4628 5.51975
24 1 18.8887 12.7682 3.42447
25 2 19.2748 6.19861 1.69924
26 2 12.975 14.5985 4.79021
27 2 14.6708 6.1879 11.7033
28 2 19.4622 15.6909 9.53181
29 2 12.6907 9.76405 1.75421
30 2 21.4208 9.73176 12.5388
31 2 10.9466 8.31987 9.00855
32 2 21.5951 5.55433 9.03755
33 2 18.588 13.8862 11.8297
34 2 21.3491 14.7851 5.11108
35 2 23.2486 8.4086 8.96842
36 2 19.5896 3.91341 5.03854
37 2 21.4778 9.86857 1.90077
38 2 12.6974 9.52335 11.7587
39 2 19.4497 6.16129 11.9075
40 2 12.973 5.48176 9.09651
41 2 15.223 14.1019 11.8627
42 2 19.3417 13.9641 2.21911
43 2 15.5322 3.81169 4.96924
44 2 23.6949 11.0216 4.75881
45 2 15.035 5.62346 2.46264
46 2 10.9218 11.4212 4.80224
47 2 15.1312 15.9546 8.79721
48 2 15.2183 13.3363 1.80023
49 2 28.0571 9.22305 13.8856
50 2 3.04019 1.58879 3.5533
51 2 22.6554 19.6514 13.7272
52 2 20.0122 18.1872 9.91966
53 2 19.8255 15.2479 13.7087
54 2 14.4673 4.02781 0.380194
55 2 25.765 8.01891 10.0688
56 2 6.17285 3.73279 9.53483
57 2 19.387 11.3154 11.6024
58 2 20.0504 14.0791 7.31667
59 2 22.3603 10.245 7.23188
60 2 20.1064 5.89977 6.71274
61 2 19.3914 8.73139 3.12416
62 2 14.2526 11.5499 11.1995
63 2 17.1974 7.34005 11.1908
64 2 14.6548 5.43209 7.06718
65 2 31.3324 15.7551 13.5775
66 2 11.9207 0.173115 0.141712
67 2 23.3524 16.3877 4.31144
68 2 8.60244 11.8538 3.47274
69 2 14.4031 8.05299 3.12505
70 2 11.7934 9.94225 6.84446
71 2 15.0073 14.2466 6.75718
72 2 17.3449 12.231 2.89177
73 2 18.8582 3.72167 2.41222
74 2 12.7575 14.4727 2.1844
75 2 12.8812 7.19637 13.4419
76 2 18.6863 16.7706 11.7604
77 2 13.0376 12.0936 0.389384
78 2 12.3313 5.10547 11.8047
79 2 17.1368 4.90687 0.677129
80 2 23.8354 8.70877 11.8906
81 2 10.6034 7.71733 11.6669
82 2 17.4498 17.5368 9.5455
83 2 23.7104 6.155 10.4668
84 2 10.2643 5.94127 9.72759
85 2 19.162 12.864 9.49214
86 2 21.1517 12.209 5.892
87 2 21.321 10.213 9.61332
88 2 18.9904 6.40028 4.47883
89 2 21.3823 9.61478 4.57301
90 2 20.8644 8.18216 7.88585
91 2 17.004 11.9758 10.8421
92 2 15.2111 9.1111 10.9215
93 2 19.3499 8.66653 11.06
94 2 17.5705 5.13847 6.42701
95 2 15.2381 7.0295 9.10589
96 2 18.9865 6.52692 9.36107
97 2 15.4708 16.7115 11.5052
98 2 21.6967 4.60156 11.4928
99 2 21.096 12.5854 0.885668
100 2 15.8964 2.94561 2.53943
101 2 21.8475 7.1969 12.8801
102 2 21.8072 14.815 2.42803
103 2 16.8177 15.6036 13.4901
104 2 10.8877 11.6163 1.97072
105 2 23.5156 11.6643 2.23679
106 2 17.4907 2.00861 4.45895
107 2 10.6163 13.9854 3.75892
108 2 23.852 13.5913 4.10028
109 2 15.6823 6.65354 4.87652
110 2 13.1843 7.61806 7.54145
111 2 13.0141 9.84176 4.5409
112 2 15.061 13.3852 9.22775
113 2 13.4313 9.93505 9.21615
114 2 13.1139 12.1151 6.08383
115 2 16.9136 7.45604 2.59812
116 2 19.8352 11.3451 3.25854
117 2 15.1313 10.8602 2.89138
118 2 17.2498 14.4426 8.01415
119 2 19.0152 13.5908 4.96464
120 2 15.382 13.0998 4.38661
121 3 18.7099 4.73917 1.18149
122 3 11.9441 14.8852 3.5097
123 3 13.4401 5.85714 12.7365
124 3 18.8647 17.0778 10.1528
125 3 11.982 11.0001 0.931028
126 3 22.5792 8.64123 12.9257
127 3 10.1087 7.51849 10.1449
128 3 22.6161 4.99362 10.1955
129 3 18.5249 12.5352 10.9639
130 3 20.4477 13.6635 5.82602
131 3 21.9668 9.2586 8.44408
132 3 18.9996 5.27749 5.68877
133 3 20.5065 9.89424 3.19772
134 3 13.8436 10.0515 10.8209
135 3 18.7513 7.16996 10.8312
136 3 14.0364 6.36268 8.22769
137 3 15.4257 15.5121 12.6408
138 3 20.77 14.0932 1.40207
139 3 16.0164 2.51355 4.10238
140 3 24.2151 12.1005 3.64323
141 3 15.54 6.93001 3.29194
142 3 12.2306 10.8483 5.58911
143 3 15.6267 14.5242 8.2242
144 3 15.7378 12.3415 2.96036
145 4 17.0449 13.4931 5.93828
146 4 13.0767 12.182 8.35609
147 4 20.9236 12.0377 8.26689
148 4 17.7998 9.58991 2.71156
149 4 17.2731 9.84123 11.4901
150 4 13.8863 7.93908 5.4511
151 4 26.0239 8.79635 12.6114
152 4 20.0751 8.10394 5.67466
153 4 16.8155 5.81643 8.20909
154 4 13.2963 1.56035 2.04675
155 4 8.1264 4.78898 9.53051
156 4 21.4896 17.7264 12.4269
157 5 9.48766 6.27408 4.2148
158 6 9.39192 4.92742 4.4382
159 7 8.77865 3.94151 3.52587
160 8 9.37646 3.04796 3.45986
161 8 8.60364 4.37055 2.54545
162 8 7.79137 3.65406 3.95091
163 9 9.77734 4.52534 5.41983
164 10 9.0502 6.72551 3.29572
165 10 9.85623 6.94856 4.99516
ITEM: TIMESTEP
4
ITEM: NUMBER OF ATOMS
165
ITEM: BOX BOUNDS xy xz yz pp pp pp
0.0000000000000000e+00 3.4359797999999998e+01 8.5899494999999995e+00
0.0000000000000000e+00 1.9837638624699999e+01 8.5899494999999995e+00
0.0000000000000000e+00 1.4027328794200001e+01 4.9594096562000001e+00
ITEM: ATOMS id type x y z
1 1 11.8497 8.37811 12.7242
2 1 18.9596 2.72369 3.86475
3 1 13.6831 13.5907 0.969418
4 1 11.6456 4.99032 10.2188
5 1 18.3834 15.3368 12.7655
6 1 15.7205 4.29447 1.52815
7 1 24.0845 7.84481 10.3946
8 1 15.7669 17.2211 9.83048
9 1 20.4507 10.0263 11.1153
10 1 18.8894 14.3494 8.59929
11 1 22.1918 10.8358 5.60975
12 1 20.3605 6.55813 8.28878
13 1 18.6084 7.19664 2.97251
14 1 15.4253 12.728 10.8226
15 1 15.5117 7.37961 10.8119
16 1 15.9262 5.21411 5.89175
17 1 22.2328 11.285 1.11881
18 1 20.9943 5.71621 12.6467
19 1 22.7043 14.8321 3.95895
20 1 10.2338 12.3273 3.41456
21 1 13.8895 9.7017 3.00972
22 1 12.3003 9.06769 8.24806
23 1 14.0731 13.4627 5.51353
24 1 18.8896 12.7706 3.42074
25 2 19.2725 6.20489 1.7037
26 2 12.9792 14.5941 4.78978
27 2 14.6695 6.18907 11.7063
28 2 19.4575 15.6884 9.5338
29 2 12.6962 9.75943 1.74847
30 2 21.4178 9.73291 12.5435
31 2 10.9414 8.32075 9.01082
32 2 21.6016 5.55605 9.04339
33 2 18.5906 13.885 11.8275
34 2 21.3542 14.7908 5.11753
35 2 23.2553 8.40687 8.96285
36 2 19.5859 3.91893 5.04543
37 2 21.4724 9.8744 1.90522
38 2 12.7021 9.52051 11.7536
39 2 19.4563 6.16233 11.9006
40 2 12.9727 5.48802 9.09979
41 2 15.219 14.097 11.8552
42 2 19.3452 13.964 2.21869
43 2 15.5273 3.80751 4.9655
44 2 23.6997 11.0259 4.75328
45 2 15.0401 5.62253 2.4581
46 2 10.9229 11.4267 4.80339
47 2 15.1357 15.9585 8.79159
48 2 15.2156 13.3369 1.80598
49 2 28.0531 9.21696 13.8832
50 2 3.03594 1.59448 3.55587
51 2 22.6516 19.6558 13.7202
52 2 20.0125 18.1841 9.92406
53 2 19.8251 15.2499 13.7043
54 2 14.4724 4.03155 0.377151
55 2 25.7634 8.01505 10.0712
56 2 6.1693 3.73737 9.53234
57 2 19.3866 11.3122 11.6045
58 2 20.0573 14.0768 7.31356
59 2 22.3543 10.2457 7.22805
60 2 20.1123 5.90245 6.71762
61 2 19.386 8.73252 3.12431
62 2 14.2573 11.5429 11.2047
63 2 17.2006 7.34589 11.1873
64 2 14.6574 5.42541 7.06331
65 2 31.3293 15.7509 13.5743
66 2 11.9281 0.174365 0.138465
67 2 23.354 16.3883 4.31601
68 2 8.59855 11.8569 3.47934
69 2 14.4104 8.04808 3.12258
70 2 11.7934 9.94659 6.84913
71 2 15.0095 14.2406 6.76331
72 2 17.3438 12.2238 2.88883
73 2 18.8616 3.72224 2.40907
74 2 12.7581 14.4782 2.18676
75 2 12.8831 7.20186 13.446
76 2 18.6876 16.7775 11.7565
77 2 13.0404 12.0999 0.381097
78 2 12.3294 5.1064 11.8081
79 2 17.1413 4.90469 0.671788
80 2 23.8369 8.70995 11.8876
81 2 10.5979 7.72079 11.6656
82 2 17.4547 17.5399 9.54476
83 2 23.7139 6.15932 10.4641
84 2 10.2629 5.9441 9.72798
85 2 19.1574 12.8616 9.48838
86 2 21.1459 12.2046 5.8979
87 2 21.3228 10.2161 9.60814
88 2 18.9916 6.39965 4.48445
89 2 21.3832 9.61629 4.57301
90 2 20.8603 8.17623 7.88673
91 2 17.0035 11.975 10.8391
92 2 15.2113 9.11404 10.9277
93 2 19.3516 8.66977 11.0631
94 2 17.5639 5.13337 6.4269
95 2 15.2375 7.03086 9.11125
96 2 18.979 6.5295 9.35983
97 2 15.4689 16.7117 11.5082
98 2 21.692 4.60543 11.4979
99 2 21.1037 12.5868 0.882326
100 2 15.8909 2.94464 2.54254
101 2 21.8524 7.19548 12.8791
102 2 21.8112 14.8149 2.42789
103 2 16.815 15.6026 13.4937
104 2 10.888 11.6171 1.97219
105 2 23.5167 11.6701 2.24235
106 2 17.4882 2.00843 4.45855
107 2 10.6133 13.9872 3.75458
108 2 23.8514 13.5925 4.09958
109 2 15.679 6.65037 4.87151
110 2 13.1813 7.6169 7.54304
111 2 13.0223 9.84215 4.53544
112 2 15.0557 13.3809 9.22093
113 2 13.4265 9.93726 9.21242
114 2 13.1142 12.1097 6.08979
115 2 16.9093 7.45983 2.60066
116 2 19.8368 11.3409 3.26522
117 2 15.1286 10.8559 2.89291
118 2 17.2486 14.444 8.01598
119 2 19.0072 13.5933 4.96983
120 2 15.3898 13.0943 4.38444
121 3 18.7097 4.73764 1.1862
122 3 11.9403 14.88 3.50796
123 3 13.4407 5.85692 12.7345
124 3 18.8628 17.0785 10.1496
125 3 11.981 11.0003 0.929922
126 3 22.5816 8.63813 12.9312
127 3 10.1069 7.51426 10.1398
128 3 22.6098 4.99859 10.1943
129 3 18.5212 12.5349 10.9699
130 3 20.4488 13.6686 5.82271
131 3 21.9666 9.25486 8.43889
132 3 19.0041 5.28098 5.69218
133 3 20.5131 9.90022 3.19606
134 3 13.8436 10.0485 10.8252
135 3 18.7571 7.17369 10.8297
136 3 14.0312 6.36355 8.22355
137 3 15.4241 15.5111 12.644
138 3 20.7634 14.0901 1.39748
139 3 16.0214 2.5182 4.09984
140 3 24.2161 12.0956 3.64722
141 3 15.5385 6.92424 3.28645
142 3 12.2261 10.8513 5.59192
143 3 15.6236 14.5297 8.22687
144 3 15.7393 12.3389 2.95484
145 4 17.0441 13.4901 5.93901
146 4 13.0786 12.1826 8.35452
147 4 20.9219 12.0388 8.26727
148 4 17.8028 9.58736 2.71101
149 4 17.2718 9.84012 11.4926
150 4 13.8877 7.94011 5.45251
151 4 26.0278 8.79654 12.6123
152 4 20.0734 8.10636 5.67328
153 4 16.8162 5.8149 8.21117
154 4 13.2944 1.56258 2.0482
155 4 8.12628 4.78813 9.53006
156 4 21.493 17.7266 12.4243
157 5 9.48362 6.27749 4.20599
158 6 9.39084 4.93472 4.4272
159 7 8.78839 3.94073 3.52666
160 8 9.38561 3.06394 3.47471
161 8 8.61926 4.37098 2.55634
162 8 7.78206 3.67481 3.93478
163 9 9.78686 4.52479 5.42535
164 10 9.03722 6.73452 3.27675
165 10 9.88384 6.94165 4.98436
ITEM: TIMESTEP
6
ITEM: NUMBER OF ATOMS
165
ITEM: BOX BOUNDS xy xz yz pp pp pp
0.0000000000000000e+00 3.4359797999999998e+01 8.5899494999999995e+00
0.0000000000000000e+00 1.9837638624699999e+01 8.5899494999999995e+00
0.0000000000000000e+00 1.4027328794200001e+01 4.9594096562000001e+00
ITEM: ATOMS id type x y z
1 1 11.8517 8.37458 12.7263
2 1 18.9599 2.72545 3.86352
3 1 13.6857 13.5919 0.972199
4 1 11.6432 4.98788 10.2145
5 1 18.387 15.3396 12.7636
6 1 15.7219 4.29532 1.53087
7 1 24.0794 7.84257 10.3923
8 1 15.7664 17.2215 9.83314
9 1 20.4487 10.0222 11.1125
10 1 18.887 14.3467 8.60339
11 1 22.196 10.8365 5.6082
12 1 20.3586 6.55565 8.2951
13 1 18.6091 7.18933 2.97461
14 1 15.421 12.7249 10.8265
15 1 15.5126 7.38275 10.8154
16 1 15.9239 5.20995 5.88796
17 1 22.2305 11.2821 1.11621
18 1 20.9908 5.7185 12.6478
19 1 22.709 14.8287 3.96234
20 1 10.2307 12.3279 3.41664
21 1 13.8902 9.69742 3.00984
22 1 12.2985 9.06984 8.25099
23 1 14.0725 13.4633 5.50658
24 1 18.8906 12.7734 3.41597
25 2 19.2698 6.21142 1.70806
26 2 12.9839 14.5893 4.78959
27 2 14.6682 6.19075 11.7091
28 2 19.4523 15.6858 9.53507
29 2 12.7025 9.75528 1.74264
30 2 21.4154 9.73405 12.5474
31 2 10.9364 8.32179 9.01359
32 2 21.6078 5.55838 9.04892
33 2 18.5927 13.883 11.8248
34 2 21.3591 14.796 5.12397
35 2 23.2613 8.40567 8.95747
36 2 19.5813 3.92505 5.0529
37 2 21.4663 9.87987 1.91014
38 2 12.7064 9.51737 11.7487
39 2 19.4626 6.16395 11.8932
40 2 12.9726 5.49474 9.10297
41 2 15.2155 14.0915 11.8474
42 2 19.349 13.9641 2.21881
43 2 15.5228 3.80408 4.96244
44 2 23.7036 11.0301 4.74879
45 2 15.0457 5.6221 2.4542
46 2 10.9249 11.4318 4.80512
47 2 15.1407 15.9622 8.78551
48 2 15.2131 13.3369 1.81165
49 2 28.0488 9.21069 13.8799
50 2 3.03165 1.59994 3.55835
51 2 22.6475 19.6592 13.713
52 2 20.0128 18.1815 9.92848
53 2 19.8251 15.2522 13.7001
54 2 14.4777 4.03487 0.374305
55 2 25.7619 8.01123 10.074
56 2 6.16743 3.74205 9.52938
57 2 19.3857 11.3088 11.6063
58 2 20.0641 14.0741 7.31131
59 2 22.348 10.2468 7.22466
60 2 20.1177 5.9057 6.72222
61 2 19.3803 8.73332 3.12477
62 2 14.2618 11.5357 11.2096
63 2 17.2032 7.35223 11.1837
64 2 14.6608 5.41892 7.05978
65 2 31.326 15.7467 13.5714
66 2 11.936 0.176023 0.13617
67 2 23.3551 16.3884 4.32003
68 2 8.59464 11.8601 3.48599
69 2 14.4176 8.04339 3.12108
70 2 11.7938 9.95091 6.85451
71 2 15.0122 14.2341 6.76904
72 2 17.3429 12.2158 2.88628
73 2 18.8646 3.72278 2.40575
74 2 12.7589 14.4832 2.18801
75 2 12.8849 7.20708 13.4497
76 2 18.689 16.785 11.7521
77 2 13.0438 12.1068 0.371344
78 2 12.3268 5.1065 11.8116
79 2 17.1458 4.90199 0.665499
80 2 23.8398 8.71121 11.8845
81 2 10.5918 7.72444 11.6648
82 2 17.4587 17.5445 9.54307
83 2 23.7189 6.16302 10.4616
84 2 10.2604 5.94608 9.72851
85 2 19.1534 12.8585 9.48382
86 2 21.1399 12.2001 5.90455
87 2 21.3243 10.2202 9.6024
88 2 18.9926 6.40024 4.49059
89 2 21.3832 9.61683 4.57394
90 2 20.8555 8.1708 7.88695
91 2 17.0027 11.9729 10.8361
92 2 15.2121 9.11712 10.9342
93 2 19.3526 8.67366 11.0656
94 2 17.5567 5.12869 6.42817
95 2 15.2379 7.03176 9.11587
96 2 18.9703 6.53211 9.3574
97 2 15.4673 16.7123 11.5103
98 2 21.6882 4.60949 11.5027
99 2 21.1116 12.5889 0.879413
100 2 15.8854 2.94322 2.54492
101 2 21.858 7.19408 12.8783
102 2 21.8158 14.8127 2.42837
103 2 16.8126 15.601 13.4972
104 2 10.889 11.6183 1.97298
105 2 23.5174 11.6763 2.24779
106 2 17.4857 2.0083 4.45821
107 2 10.6101 13.9889 3.74991
108 2 23.8506 13.5942 4.09893
109 2 15.6754 6.64782 4.86771
110 2 13.1789 7.61609 7.54346
111 2 13.0313 9.84176 4.53114
112 2 15.05 13.3755 9.21368
113 2 13.4217 9.94047 9.20868
114 2 13.1156 12.1046 6.09727
115 2 16.906 7.46482 2.60339
116 2 19.8378 11.3365 3.27251
117 2 15.1267 10.8513 2.8946
118 2 17.2476 14.445 8.01694
119 2 18.9981 13.5954 4.97582
120 2 15.3984 13.0886 4.3835
121 3 18.7099 4.73632 1.19166
122 3 11.9367 14.875 3.50671
123 3 13.4417 5.85723 12.7324
124 3 18.8617 17.0785 10.1474
125 3 11.979 10.9995 0.92957
126 3 22.5829 8.63519 12.9369
127 3 10.1052 7.51047 10.134
128 3 22.6019 5.00366 10.1933
129 3 18.5181 12.5353 10.9767
130 3 20.4503 13.6744 5.81887
131 3 21.9672 9.25067 8.43373
132 3 19.0098 5.28364 5.69492
133 3 20.5212 9.90678 3.19366
134 3 13.8438 10.0458 10.8295
135 3 18.7634 7.17672 10.8294
136 3 14.0248 6.364 8.21985
137 3 15.4225 15.5104 12.647
138 3 20.7557 14.0856 1.39228
139 3 16.0261 2.52296 4.09739
140 3 24.2172 12.0901 3.65076
141 3 15.5363 6.91772 3.27991
142 3 12.2202 10.8544 5.59373
143 3 15.6199 14.536 8.23
144 3 15.7404 12.337 2.94887
145 4 17.0433 13.4873 5.93963
146 4 13.0807 12.1832 8.35289
147 4 20.9202 12.0399 8.26764
148 4 17.8054 9.58514 2.71039
149 4 17.2706 9.839 11.4949
150 4 13.8891 7.94124 5.45387
151 4 26.0316 8.79677 12.6133
152 4 20.0719 8.10869 5.67188
153 4 16.817 5.81348 8.21344
154 4 13.2926 1.56575 2.04935
155 4 8.1262 4.78736 9.52969
156 4 21.4961 17.727 12.4219
157 5 9.47758 6.27801 4.19684
158 6 9.39297 4.94632 4.42139
159 7 8.79437 3.94177 3.52901
160 8 9.39915 3.06921 3.48785
161 8 8.6341 4.37244 2.55941
162 8 7.77615 3.69381 3.9171
163 9 9.79227 4.5291 5.41873
164 10 9.0297 6.74018 3.26568
165 10 9.9107 6.93464 4.97005
ITEM: TIMESTEP
8
ITEM: NUMBER OF ATOMS
165
ITEM: BOX BOUNDS xy xz yz pp pp pp
0.0000000000000000e+00 3.4359797999999998e+01 8.5899494999999995e+00
0.0000000000000000e+00 1.9837638624699999e+01 8.5899494999999995e+00
0.0000000000000000e+00 1.4027328794200001e+01 4.9594096562000001e+00
ITEM: ATOMS id type x y z
1 1 11.854 8.3712 12.7286
2 1 18.9607 2.72724 3.86221
3 1 13.6885 13.5941 0.976225
4 1 11.6416 4.9853 10.2098
5 1 18.3905 15.3426 12.7618
6 1 15.723 4.29652 1.5337
7 1 24.0743 7.84053 10.3894
8 1 15.7651 17.2207 9.83675
9 1 20.4469 10.0179 11.1107
10 1 18.885 14.3445 8.60771
11 1 22.2011 10.8373 5.60607
12 1 20.3574 6.55239 8.30197
13 1 18.6101 7.18065 2.97623
14 1 15.4165 12.7227 10.8308
15 1 15.5135 7.38564 10.8195
16 1 15.9208 5.20498 5.8829
17 1 22.2287 11.2791 1.11361
18 1 20.987 5.72086 12.6484
19 1 22.7139 14.8251 3.96668
20 1 10.2277 12.3284 3.41893
21 1 13.8901 9.69311 3.00935
22 1 12.2963 9.0714 8.2536
23 1 14.0713 13.4647 5.49899
24 1 18.8919 12.7764 3.41024
25 2 19.2668 6.21802 1.71223
26 2 12.9887 14.5841 4.78956
27 2 14.6669 6.19299 11.7116
28 2 19.4466 15.6833 9.53565
29 2 12.7096 9.75165 1.73669
30 2 21.4135 9.73511 12.5507
31 2 10.9317 8.32304 9.01676
32 2 21.6135 5.56139 9.05398
33 2 18.5945 13.8805 11.8215
34 2 21.3638 14.8008 5.13035
35 2 23.2667 8.40504 8.95221
36 2 19.576 3.93159 5.06085
37 2 21.4596 9.88496 1.91531
38 2 12.7102 9.51383 11.7439
39 2 19.4684 6.16614 11.8852
40 2 12.9729 5.50188 9.10607
41 2 15.2122 14.0855 11.8395
42 2 19.3531 13.9644 2.21949
43 2 15.5186 3.80148 4.96011
44 2 23.7063 11.034 4.74554
45 2 15.0517 5.62208 2.4509
46 2 10.9278 11.4365 4.8074
47 2 15.1462 15.9658 8.77907
48 2 15.2106 13.3363 1.81715
49 2 28.0443 9.20431 13.8758
50 2 3.02742 1.60493 3.56075
51 2 22.6434 19.6613 13.706
52 2 20.0132 18.1792 9.9329
53 2 19.8256 15.2551 13.6961
54 2 14.4833 4.03777 0.371766
55 2 25.7603 8.00744 10.0772
56 2 6.16724 3.74681 9.52597
57 2 19.3842 11.3052 11.6077
58 2 20.0707 14.0709 7.31007
59 2 22.3413 10.2483 7.22174
60 2 20.1226 5.90946 6.72651
61 2 19.3744 8.73388 3.12555
62 2 14.266 11.5284 11.2142
63 2 17.2052 7.35909 11.1799
64 2 14.6651 5.41272 7.05674
65 2 31.3226 15.7424 13.5688
66 2 11.9442 0.178052 0.1349
67 2 23.3559 16.3882 4.32347
68 2 8.59088 11.8636 3.49264
69 2 14.4246 8.03906 3.12049
70 2 11.7946 9.95521 6.86055
71 2 15.0155 14.2271 6.77421
72 2 17.3425 12.2068 2.88411
73 2 18.8671 3.72324 2.4024
74 2 12.7598 14.4875 2.18809
75 2 12.8867 7.21192 13.4531
76 2 18.6907 16.793 11.7473
77 2 13.0476 12.1141 0.360205
78 2 12.3236 5.10576 11.8153
79 2 17.1501 4.89876 0.658332
80 2 23.8439 8.71253 11.8814
81 2 10.5851 7.72826 11.6646
82 2 17.4616 17.5506 9.54043
83 2 23.7251 6.16592 10.459
84 2 10.2569 5.94708 9.72916
85 2 19.1497 12.8547 9.47858
86 2 21.1336 12.1955 5.91192
87 2 21.3255 10.2251 9.59614
88 2 18.9934 6.40209 4.49719
89 2 21.3822 9.61639 4.57579
90 2 20.8503 8.16593 7.88654
91 2 17.0016 11.9696 10.8329
92 2 15.2137 9.12029 10.941
93 2 19.3528 8.67811 11.0674
94 2 17.549 5.12449 6.43078
95 2 15.2392 7.03212 9.11963
96 2 18.9607 6.53472 9.35377
97 2 15.466 16.7131 11.5115
98 2 21.6856 4.61371 11.5073
99 2 21.1197 12.5917 0.876913
100 2 15.8799 2.94142 2.54645
101 2 21.8643 7.19263 12.8776
102 2 21.8209 14.8086 2.42934
103 2 16.8105 15.599 13.5004
104 2 10.8907 11.6198 1.97312
105 2 23.5177 11.6828 2.25298
106 2 17.4832 2.00826 4.45792
107 2 10.6068 13.9906 3.74494
108 2 23.8495 13.5962 4.09833
109 2 15.6716 6.64587 4.8651
110 2 13.1773 7.61567 7.54269
111 2 13.0409 9.84067 4.52819
112 2 15.0438 13.3691 9.20609
113 2 13.4171 9.94471 9.20507
114 2 13.1179 12.0998 6.10623
115 2 16.9038 7.471 2.6063
116 2 19.8381 11.332 3.28042
117 2 15.1256 10.8464 2.89644
118 2 17.2468 14.4454 8.01704
119 2 18.9879 13.5971 4.98253
120 2 15.4078 13.0826 4.38382
121 3 18.7103 4.73524 1.19772
122 3 11.9332 14.8702 3.50598
123 3 13.4431 5.85816 12.7302
124 3 18.8614 17.0776 10.1461
125 3 11.9758 10.9976 0.929944
126 3 22.5833 8.63249 12.9428
127 3 10.1036 7.50718 10.1276
128 3 22.5924 5.00877 10.1927
129 3 18.5156 12.5362 10.984
130 3 20.4521 13.6806 5.81455
131 3 21.9684 9.24605 8.42864
132 3 19.0166 5.28549 5.69708
133 3 20.5305 9.91378 3.19064
134 3 13.8443 10.0433 10.8337
135 3 18.7703 7.17907 10.8302
136 3 14.0173 6.36401 8.21662
137 3 15.4211 15.5099 12.6498
138 3 20.747 14.08 1.38654
139 3 16.0304 2.52772 4.09505
140 3 24.2185 12.0844 3.6538
141 3 15.5336 6.91051 3.27241
142 3 12.2131 10.8573 5.59453
143 3 15.6159 14.5429 8.23356
144 3 15.7412 12.3356 2.94251
145 4 17.0423 13.4846 5.94015
146 4 13.0829 12.1837 8.3512
147 4 20.9184 12.041 8.26799
148 4 17.8077 9.58327 2.7097
149 4 17.2694 9.83788 11.4971
150 4 13.8903 7.94245 5.45519
151 4 26.0355 8.79704 12.6144
152 4 20.0705 8.11093 5.67049
153 4 16.818 5.81219 8.21588
154 4 13.2911 1.56981 2.05022
155 4 8.12617 4.78665 9.52943
156 4 21.499 17.7274 12.4195
157 5 9.47008 6.2774 4.18723
158 6 9.39812 4.9604 4.42128
159 7 8.79645 3.94497 3.53278
160 8 9.41638 3.06369 3.4994
161 8 8.64846 4.37484 2.55365
162 8 7.77401 3.71034 3.89854
163 9 9.79354 4.53914 5.3996
164 10 9.02793 6.74199 3.26357
165 10 9.93569 6.92748 4.95125
ITEM: TIMESTEP
10
ITEM: NUMBER OF ATOMS
165
ITEM: BOX BOUNDS xy xz yz pp pp pp
0.0000000000000000e+00 3.4359797999999998e+01 8.5899494999999995e+00
0.0000000000000000e+00 1.9837638624699999e+01 8.5899494999999995e+00
0.0000000000000000e+00 1.4027328794200001e+01 4.9594096562000001e+00
ITEM: ATOMS id type x y z
1 1 11.8564 8.36801 12.7312
2 1 18.9619 2.7291 3.86084
3 1 13.6916 13.5971 0.981428
4 1 11.6407 4.98262 10.2046
5 1 18.3938 15.3459 12.7601
6 1 15.7238 4.29807 1.53657
7 1 24.0691 7.83875 10.3861
8 1 15.7629 17.2188 9.84128
9 1 20.4454 10.0136 11.1098
10 1 18.8835 14.3428 8.61217
11 1 22.2069 10.8381 5.60338
12 1 20.3569 6.54836 8.30938
13 1 18.6114 7.17073 2.97743
14 1 15.4116 12.7212 10.8355
15 1 15.5143 7.38826 10.824
16 1 15.9169 5.19924 5.8766
17 1 22.2273 11.2761 1.11102
18 1 20.983 5.7233 12.6484
19 1 22.719 14.8214 3.97192
20 1 10.2249 12.3288 3.42142
21 1 13.8893 9.68876 3.00824
22 1 12.2934 9.07237 8.25588
23 1 14.0696 13.4668 5.49084
24 1 18.8933 12.7798 3.40365
25 2 19.2635 6.22452 1.71608
26 2 12.9937 14.5787 4.78956
27 2 14.6658 6.1958 11.7137
28 2 19.4405 15.6807 9.53555
29 2 12.7173 9.74861 1.73058
30 2 21.4122 9.73606 12.5533
31 2 10.9274 8.32455 9.02022
32 2 21.6186 5.5652 9.0584
33 2 18.5959 13.8775 11.8179
34 2 21.3683 14.805 5.13661
35 2 23.2714 8.405 8.94703
36 2 19.57 3.93836 5.06913
37 2 21.4526 9.88966 1.92044
38 2 12.7132 9.50978 11.7395
39 2 19.4738 6.16886 11.8767
40 2 12.9733 5.50937 9.10911
41 2 15.2094 14.0793 11.8315
42 2 19.3573 13.9648 2.22071
43 2 15.5149 3.79975 4.95848
44 2 23.7079 11.0376 4.74369
45 2 15.0582 5.62235 2.44811
46 2 10.9316 11.4409 4.81015
47 2 15.1521 15.9695 8.77235
48 2 15.2082 13.3352 1.82237
49 2 28.0393 9.19791 13.8709
50 2 3.02334 1.60927 3.56306
51 2 22.6393 19.6621 13.6993
52 2 20.0138 18.1774 9.93728
53 2 19.8267 15.2583 13.6923
54 2 14.4891 4.04026 0.369632
55 2 25.7587 8.00367 10.0807
56 2 6.16872 3.75164 9.5222
57 2 19.3822 11.3015 11.6087
58 2 20.077 14.0674 7.30993
59 2 22.3343 10.2499 7.21929
60 2 20.1268 5.91369 6.73047
61 2 19.3686 8.73426 3.12669
62 2 14.27 11.5209 11.2185
63 2 17.2067 7.36643 11.1759
64 2 14.67 5.40691 7.05436
65 2 31.3189 15.7381 13.5666
66 2 11.9527 0.180424 0.134703
67 2 23.3563 16.3877 4.32631
68 2 8.58748 11.8672 3.4993
69 2 14.4312 8.03518 3.12078
70 2 11.7957 9.9595 6.86716
71 2 15.0192 14.2194 6.77871
72 2 17.3424 12.1969 2.88229
73 2 18.8691 3.72352 2.39917
74 2 12.7609 14.4914 2.18703
75 2 12.8885 7.21626 13.4561
76 2 18.6925 16.8012 11.7423
77 2 13.0516 12.1218 0.347777
78 2 12.3196 5.10419 11.8189
79 2 17.1542 4.89499 0.650368
80 2 23.8492 8.71392 11.8784
81 2 10.5778 7.73226 11.665
82 2 17.4633 17.5582 9.53685
83 2 23.7326 6.16782 10.4565
84 2 10.2524 5.94696 9.72989
85 2 19.1465 12.85 9.47283
86 2 21.1269 12.191 5.91993
87 2 21.3264 10.2307 9.58936
88 2 18.9939 6.40523 4.50423
89 2 21.3802 9.615 4.57854
90 2 20.8446 8.16169 7.88554
91 2 17.0003 11.9651 10.8298
92 2 15.216 9.12352 10.9482
93 2 19.3522 8.68301 11.0686
94 2 17.5411 5.12078 6.43467
95 2 15.2414 7.03189 9.12244
96 2 18.9502 6.53735 9.34899
97 2 15.465 16.7142 11.5119
98 2 21.6841 4.61809 11.5115
99 2 21.128 12.5952 0.874797
100 2 15.8744 2.93931 2.54703
101 2 21.8712 7.1911 12.877
102 2 21.8264 14.8026 2.43065
103 2 16.8089 15.5964 13.5032
104 2 10.8929 11.6217 1.97265
105 2 23.5173 11.6896 2.25776
106 2 17.4808 2.0083 4.45767
107 2 10.6033 13.9922 3.73968
108 2 23.8484 13.5983 4.09779
109 2 15.6677 6.64449 4.86364